<?xml version="1.0" encoding="UTF-8"?>

<!-- generated on Saturday 18 May 2019 12:08:46 AM IST by SUMO gui Version 0.32.0
<?xml version="1.0" encoding="UTF-8"?>

<configuration xmlns:xsi="http://www.w3.org/2001/XMLSchema-instance" xsi:noNamespaceSchemaLocation="http://sumo.dlr.de/xsd/sumoConfiguration.xsd">

    <input>
        <net-file value="osm.net.xml"/>
        <route-files value="osm_pt.rou.xml,osm.passenger.trips.xml,osm.bicycle.trips.xml,osm.bus.trips.xml,osm.pedestrian.rou.xml,osm.truck.trips.xml,osm.motorcycle.trips.xml"/>
        <additional-files value="osm.poly.xml,osm_stops.add.xml"/>
    </input>

    <output>
        <tripinfo-output value="tripinfo.xml"/>
    </output>

    <processing>
        <ignore-route-errors value="true"/>
    </processing>

    <routing>
        <device.rerouting.adaptation-steps value="180"/>
    </routing>

    <report>
        <verbose value="true"/>
        <duration-log.statistics value="true"/>
        <no-step-log value="true"/>
    </report>

    <traci_server>
        <remote-port value="48517"/>
    </traci_server>

    <gui_only>
        <gui-settings-file value="osm.view.xml"/>
    </gui_only>

</configuration>
-->

<tripinfos xmlns:xsi="http://www.w3.org/2001/XMLSchema-instance" xsi:noNamespaceSchemaLocation="http://sumo.dlr.de/xsd/tripinfo_file.xsd">
    <tripinfo id="veh5" depart="13.00" departLane="-24730651#0_1" departPos="5.10" departSpeed="0.00" departDelay="-0.49" arrival="74.00" arrivalLane="191207584#8_1" arrivalPos="33.52" arrivalSpeed="8.91" duration="61.00" routeLength="499.87" waitSteps="0" timeLoss="7.18" rerouteNo="1" devices="tripinfo_veh5 routing_veh5" vType="passenger" speedFactor="0.94" vaporized=""/>
    <tripinfo id="moto0" depart="0.00" departLane="27768549#1_1" departPos="2.30" departSpeed="0.00" departDelay="0.00" arrival="81.00" arrivalLane="24730644#8_1" arrivalPos="95.35" arrivalSpeed="13.52" duration="81.00" routeLength="1032.96" waitSteps="0" timeLoss="9.86" rerouteNo="1" devices="tripinfo_moto0 routing_moto0" vType="motorcycle" speedFactor="1.05" vaporized=""/>
    <tripinfo id="veh28" depart="75.00" departLane="-24730642#5_1" departPos="5.10" departSpeed="0.00" departDelay="-0.53" arrival="124.00" arrivalLane="24730653#1_1" arrivalPos="34.48" arrivalSpeed="14.32" duration="49.00" routeLength="556.25" waitSteps="0" timeLoss="10.42" rerouteNo="1" devices="tripinfo_veh28 routing_veh28" vType="passenger" speedFactor="1.05" vaporized=""/>
    <tripinfo id="bike2" depart="7.00" departLane="30024683#2_0" departPos="1.70" departSpeed="0.00" departDelay="-0.40" arrival="143.00" arrivalLane="30024692#0_0" arrivalPos="29.26" arrivalSpeed="5.55" duration="136.00" routeLength="689.36" waitSteps="0" timeLoss="11.85" rerouteNo="1" devices="tripinfo_bike2 routing_bike2" vType="bicycle" speedFactor="1.01" vaporized=""/>
    <tripinfo id="bike4" depart="14.00" departLane="-30037409#1_0" departPos="1.70" departSpeed="0.00" departDelay="-0.80" arrival="145.00" arrivalLane="-191207584#5_1" arrivalPos="106.12" arrivalSpeed="4.99" duration="131.00" routeLength="667.13" waitSteps="0" timeLoss="10.12" rerouteNo="1" devices="tripinfo_bike4 routing_bike4" vType="bicycle" speedFactor="0.99" vaporized=""/>
    <tripinfo id="moto2" depart="16.00" departLane="-191207584#11_1" departPos="2.30" departSpeed="0.00" departDelay="-0.18" arrival="146.00" arrivalLane="-25649885#2_1" arrivalPos="287.76" arrivalSpeed="10.11" duration="130.00" routeLength="1374.44" waitSteps="0" timeLoss="17.39" rerouteNo="1" devices="tripinfo_moto2 routing_moto2" vType="motorcycle" speedFactor="0.89" vaporized=""/>
    <tripinfo id="bike18" depart="66.00" departLane="30029292#2_0" departPos="1.70" departSpeed="0.00" departDelay="-0.62" arrival="161.00" arrivalLane="27768549#0_1" arrivalPos="22.68" arrivalSpeed="5.00" duration="95.00" routeLength="468.80" waitSteps="0" timeLoss="9.93" rerouteNo="1" devices="tripinfo_bike18 routing_bike18" vType="bicycle" speedFactor="1.09" vaporized=""/>
    <tripinfo id="veh0" depart="0.00" departLane="24730644#21_1" departPos="5.10" departSpeed="0.00" departDelay="0.00" arrival="182.00" arrivalLane="-191207584#5_1" arrivalPos="106.12" arrivalSpeed="9.60" duration="182.00" routeLength="2032.21" waitSteps="0" timeLoss="28.79" rerouteNo="1" devices="tripinfo_veh0 routing_veh0" vType="passenger" speedFactor="1.06" vaporized=""/>
    <tripinfo id="moto12" depart="97.00" departLane="-207147909_0" departPos="2.30" departSpeed="0.00" departDelay="-0.11" arrival="200.00" arrivalLane="-28234118#0_1" arrivalPos="466.11" arrivalSpeed="12.21" duration="103.00" routeLength="1088.32" waitSteps="0" timeLoss="13.98" rerouteNo="1" devices="tripinfo_moto12 routing_moto12" vType="motorcycle" speedFactor="0.92" vaporized=""/>
    <tripinfo id="veh34" depart="93.00" departLane="-24730644#6_1" departPos="5.10" departSpeed="0.00" departDelay="1.29" arrival="203.00" arrivalLane="330222366#4_1" arrivalPos="12.60" arrivalSpeed="8.76" duration="110.00" routeLength="1174.04" waitSteps="0" timeLoss="13.77" rerouteNo="1" devices="tripinfo_veh34 routing_veh34" vType="passenger" speedFactor="0.88" vaporized=""/>
    <tripinfo id="bus0" depart="4.00" departLane="24730644#21_1" departPos="12.10" departSpeed="0.00" departDelay="4.00" arrival="204.00" arrivalLane="-191207584#5_1" arrivalPos="106.12" arrivalSpeed="5.89" duration="200.00" routeLength="2025.21" waitSteps="7" timeLoss="38.64" rerouteNo="1" devices="tripinfo_bus0 routing_bus0" vType="bus" speedFactor="1.00" vaporized=""/>
    <tripinfo id="veh13" depart="35.00" departLane="-207145445_0" departPos="5.10" departSpeed="0.00" departDelay="-0.07" arrival="205.00" arrivalLane="-24730642#10_1" arrivalPos="196.16" arrivalSpeed="14.31" duration="170.00" routeLength="1585.42" waitSteps="0" timeLoss="46.25" rerouteNo="1" devices="tripinfo_veh13 routing_veh13" vType="passenger" speedFactor="1.09" vaporized=""/>
    <tripinfo id="bike24" depart="89.00" departLane="24730644#22_1" departPos="1.70" departSpeed="0.00" departDelay="0.17" arrival="205.00" arrivalLane="-318477185#0_0" arrivalPos="11.90" arrivalSpeed="4.26" duration="116.00" routeLength="581.74" waitSteps="0" timeLoss="9.61" rerouteNo="1" devices="tripinfo_bike24 routing_bike24" vType="bicycle" speedFactor="0.85" vaporized=""/>
    <tripinfo id="truck0" depart="9.00" departLane="24730644#21_1" departPos="7.20" departSpeed="0.00" departDelay="9.00" arrival="207.00" arrivalLane="-191207584#5_1" arrivalPos="106.12" arrivalSpeed="7.86" duration="198.00" routeLength="2030.11" waitSteps="7" timeLoss="41.17" rerouteNo="1" devices="tripinfo_truck0 routing_truck0" vType="truck" speedFactor="1.03" vaporized=""/>
    <tripinfo id="bike42" depart="155.00" departLane="-30036616#1_0" departPos="1.70" departSpeed="0.00" departDelay="-0.45" arrival="208.00" arrivalLane="-30025545_0" arrivalPos="53.88" arrivalSpeed="4.90" duration="53.00" routeLength="233.69" waitSteps="0" timeLoss="8.53" rerouteNo="1" devices="tripinfo_bike42 routing_bike42" vType="bicycle" speedFactor="0.94" vaporized=""/>
    <tripinfo id="veh24" depart="64.00" departLane="24730644#19_1" departPos="5.10" departSpeed="0.00" departDelay="-0.74" arrival="211.00" arrivalLane="-321823978#11_1" arrivalPos="30.90" arrivalSpeed="8.07" duration="147.00" routeLength="1110.63" waitSteps="1" timeLoss="57.18" rerouteNo="1" devices="tripinfo_veh24 routing_veh24" vType="passenger" speedFactor="1.03" vaporized=""/>
    <tripinfo id="truck23" depart="93.00" departLane="24730644#19_1" departPos="7.20" departSpeed="0.00" departDelay="-0.06" arrival="213.00" arrivalLane="-321823978#11_1" arrivalPos="30.90" arrivalSpeed="8.13" duration="120.00" routeLength="1108.53" waitSteps="0" timeLoss="31.23" rerouteNo="1" devices="tripinfo_truck23 routing_truck23" vType="truck" speedFactor="1.03" vaporized=""/>
    <tripinfo id="veh29" depart="78.00" departLane="-24730642#10_1" departPos="5.10" departSpeed="0.00" departDelay="-0.23" arrival="215.00" arrivalLane="-321823978#20_1" arrivalPos="59.35" arrivalSpeed="10.12" duration="137.00" routeLength="1485.67" waitSteps="0" timeLoss="37.90" rerouteNo="1" devices="tripinfo_veh29 routing_veh29" vType="passenger" speedFactor="1.12" vaporized=""/>
    <tripinfo id="moto18" depart="145.00" departLane="-24730644#2_1" departPos="2.30" departSpeed="0.00" departDelay="-0.66" arrival="215.00" arrivalLane="25649885#1_1" arrivalPos="5.15" arrivalSpeed="9.86" duration="70.00" routeLength="754.26" waitSteps="0" timeLoss="10.00" rerouteNo="1" devices="tripinfo_moto18 routing_moto18" vType="motorcycle" speedFactor="0.91" vaporized=""/>
    <tripinfo id="truck12" depart="48.00" departLane="-207145445_0" departPos="7.20" departSpeed="0.00" departDelay="-0.55" arrival="217.00" arrivalLane="-24730642#10_1" arrivalPos="196.16" arrivalSpeed="14.70" duration="169.00" routeLength="1583.32" waitSteps="0" timeLoss="44.99" rerouteNo="1" devices="tripinfo_truck12 routing_truck12" vType="truck" speedFactor="1.09" vaporized=""/>
    <tripinfo id="route1_1" depart="0.00" departLane="-318477797_1" departPos="7.60" departSpeed="0.00" departDelay="0.00" arrival="222.00" arrivalLane="-30029209#1_1" arrivalPos="93.00" arrivalSpeed="14.67" duration="222.00" routeLength="2785.16" waitSteps="0" timeLoss="32.83" rerouteNo="0" devices="tripinfo_route1_1" vType="passenger" speedFactor="1.06" vaporized=""/>
    <tripinfo id="truck31" depart="125.00" departLane="-24730644#6_1" departPos="7.20" departSpeed="0.00" departDelay="-0.43" arrival="223.00" arrivalLane="330222366#4_1" arrivalPos="12.60" arrivalSpeed="9.87" duration="98.00" routeLength="1171.94" waitSteps="0" timeLoss="24.00" rerouteNo="1" devices="tripinfo_truck31 routing_truck31" vType="truck" speedFactor="1.15" vaporized=""/>
    <tripinfo id="veh47" depart="126.00" departLane="330222367#8_1" departPos="5.10" departSpeed="0.00" departDelay="-0.78" arrival="223.00" arrivalLane="30029312#4_1" arrivalPos="67.81" arrivalSpeed="6.67" duration="97.00" routeLength="878.82" waitSteps="0" timeLoss="42.33" rerouteNo="1" devices="tripinfo_veh47 routing_veh47" vType="passenger" speedFactor="1.16" vaporized=""/>
    <tripinfo id="veh4" depart="10.00" departLane="-330222366#0_1" departPos="5.10" departSpeed="0.00" departDelay="-0.79" arrival="227.00" arrivalLane="-191207584#9_1" arrivalPos="60.02" arrivalSpeed="7.99" duration="217.00" routeLength="2327.75" waitSteps="0" timeLoss="19.26" rerouteNo="1" devices="tripinfo_veh4 routing_veh4" vType="passenger" speedFactor="0.94" vaporized=""/>
    <tripinfo id="moto17" depart="137.00" departLane="24730644#5_1" departPos="2.30" departSpeed="0.00" departDelay="-0.57" arrival="229.00" arrivalLane="24730642#10_1" arrivalPos="195.03" arrivalSpeed="12.17" duration="92.00" routeLength="1102.24" waitSteps="0" timeLoss="13.02" rerouteNo="1" devices="tripinfo_moto17 routing_moto17" vType="motorcycle" speedFactor="1.01" vaporized=""/>
    <tripinfo id="moto6" depart="48.00" departLane="-30029312#11_1" departPos="2.30" departSpeed="0.00" departDelay="-0.55" arrival="234.00" arrivalLane="-24730644#7_1" arrivalPos="54.27" arrivalSpeed="11.91" duration="186.00" routeLength="1559.61" waitSteps="0" timeLoss="59.48" rerouteNo="1" devices="tripinfo_moto6 routing_moto6" vType="motorcycle" speedFactor="0.89" vaporized=""/>
    <personinfo id="ped43" depart="93.59">
        <walk depart="94.00" departPos="0.00" arrival="235.00" arrivalPos="0.00" duration="141.00" routeLength="173.34" timeLoss="16.20" maxSpeed="1.39"/>
    </personinfo>
    <tripinfo id="bike26" depart="96.00" departLane="-30025547_0" departPos="1.70" departSpeed="0.00" departDelay="-0.23" arrival="237.00" arrivalLane="321823978#4_1" arrivalPos="93.30" arrivalSpeed="5.48" duration="141.00" routeLength="725.32" waitSteps="0" timeLoss="10.30" rerouteNo="1" devices="tripinfo_bike26 routing_bike26" vType="bicycle" speedFactor="1.02" vaporized=""/>
    <tripinfo id="moto22" depart="178.00" departLane="24730644#8_1" departPos="2.30" departSpeed="0.00" departDelay="-0.03" arrival="252.00" arrivalLane="-321823978#6_1" arrivalPos="39.24" arrivalSpeed="8.86" duration="74.00" routeLength="800.85" waitSteps="0" timeLoss="10.52" rerouteNo="1" devices="tripinfo_moto22 routing_moto22" vType="motorcycle" speedFactor="0.96" vaporized=""/>
    <tripinfo id="bike19" depart="70.00" departLane="30029361#0_0" departPos="1.70" departSpeed="0.00" departDelay="-0.32" arrival="256.00" arrivalLane="24730644#6_1" arrivalPos="59.24" arrivalSpeed="5.24" duration="186.00" routeLength="959.49" waitSteps="0" timeLoss="12.66" rerouteNo="1" devices="tripinfo_bike19 routing_bike19" vType="bicycle" speedFactor="1.00" vaporized=""/>
    <tripinfo id="bus12" depart="97.00" departLane="-207145445_0" departPos="12.10" departSpeed="0.00" departDelay="-0.11" arrival="258.00" arrivalLane="-24730642#10_1" arrivalPos="196.16" arrivalSpeed="13.50" duration="161.00" routeLength="1578.42" waitSteps="0" timeLoss="27.71" rerouteNo="1" devices="tripinfo_bus12 routing_bus12" vType="bus" speedFactor="1.00" vaporized=""/>
    <tripinfo id="veh33" depart="89.00" departLane="-30029227#2_0" departPos="5.10" departSpeed="0.00" departDelay="-0.02" arrival="258.00" arrivalLane="-30029227#1_0" arrivalPos="472.13" arrivalSpeed="3.92" duration="169.00" routeLength="753.27" waitSteps="0" timeLoss="22.63" rerouteNo="0" devices="tripinfo_veh33 routing_veh33" vType="passenger" speedFactor="0.93" vaporized=""/>
    <tripinfo id="truck4" depart="16.00" departLane="-330222366#0_1" departPos="7.20" departSpeed="0.00" departDelay="-0.18" arrival="259.00" arrivalLane="-191207584#9_1" arrivalPos="60.02" arrivalSpeed="7.91" duration="243.00" routeLength="2325.65" waitSteps="0" timeLoss="19.48" rerouteNo="1" devices="tripinfo_truck4 routing_truck4" vType="truck" speedFactor="0.83" vaporized=""/>
    <tripinfo id="moto26" depart="210.00" departLane="330222367#8_1" departPos="2.30" departSpeed="0.00" departDelay="-0.40" arrival="262.00" arrivalLane="30036615_1" arrivalPos="186.48" arrivalSpeed="12.03" duration="52.00" routeLength="557.01" waitSteps="0" timeLoss="6.82" rerouteNo="1" devices="tripinfo_moto26 routing_moto26" vType="motorcycle" speedFactor="0.89" vaporized=""/>
    <tripinfo id="bike12" depart="44.00" departLane="330222366#3_1" departPos="1.70" departSpeed="0.00" departDelay="-0.41" arrival="267.00" arrivalLane="-30036616#3_0" arrivalPos="47.93" arrivalSpeed="5.13" duration="223.00" routeLength="1152.13" waitSteps="0" timeLoss="14.99" rerouteNo="1" devices="tripinfo_bike12 routing_bike12" vType="bicycle" speedFactor="1.03" vaporized=""/>
    <tripinfo id="moto14" depart="113.00" departLane="24730644#21_1" departPos="2.30" departSpeed="0.00" departDelay="-0.29" arrival="268.00" arrivalLane="-321823978#11_1" arrivalPos="30.90" arrivalSpeed="9.56" duration="155.00" routeLength="1215.02" waitSteps="1" timeLoss="63.81" rerouteNo="1" devices="tripinfo_moto14 routing_moto14" vType="motorcycle" speedFactor="1.09" vaporized=""/>
    <tripinfo id="veh54" depart="145.00" departLane="321823978#16_1" departPos="5.10" departSpeed="0.00" departDelay="-0.66" arrival="269.00" arrivalLane="30036609_1" arrivalPos="41.56" arrivalSpeed="12.01" duration="124.00" routeLength="693.73" waitSteps="5" timeLoss="47.15" rerouteNo="1" devices="tripinfo_veh54 routing_veh54" vType="passenger" speedFactor="0.89" vaporized=""/>
    <tripinfo id="bike41" depart="151.00" departLane="206633608#0_1" departPos="1.70" departSpeed="0.00" departDelay="-0.75" arrival="269.00" arrivalLane="30038536_0" arrivalPos="71.65" arrivalSpeed="4.94" duration="118.00" routeLength="602.44" waitSteps="0" timeLoss="8.76" rerouteNo="1" devices="tripinfo_bike41 routing_bike41" vType="bicycle" speedFactor="0.99" vaporized=""/>
    <tripinfo id="veh46" depart="126.00" departLane="35572872#0_1" departPos="5.10" departSpeed="0.00" departDelay="1.92" arrival="271.00" arrivalLane="207145437_0" arrivalPos="139.63" arrivalSpeed="2.59" duration="145.00" routeLength="938.38" waitSteps="0" timeLoss="28.65" rerouteNo="1" devices="tripinfo_veh46 routing_veh46" vType="passenger" speedFactor="0.94" vaporized=""/>
    <tripinfo id="moto21" depart="170.00" departLane="-25649885#1_1" departPos="2.30" departSpeed="0.00" departDelay="0.06" arrival="272.00" arrivalLane="-191207584#7_1" arrivalPos="12.43" arrivalSpeed="8.42" duration="102.00" routeLength="916.06" waitSteps="0" timeLoss="27.00" rerouteNo="1" devices="tripinfo_moto21 routing_moto21" vType="motorcycle" speedFactor="1.07" vaporized=""/>
    <tripinfo id="truck30" depart="122.00" departLane="-30029227#2_0" departPos="7.20" departSpeed="0.00" departDelay="0.61" arrival="273.00" arrivalLane="-30029227#1_0" arrivalPos="472.13" arrivalSpeed="5.13" duration="151.00" routeLength="751.17" waitSteps="0" timeLoss="11.07" rerouteNo="0" devices="tripinfo_truck30 routing_truck30" vType="truck" speedFactor="0.97" vaporized=""/>
    <tripinfo id="bus4" depart="32.00" departLane="-330222366#0_1" departPos="12.10" departSpeed="0.00" departDelay="-0.37" arrival="276.00" arrivalLane="-191207584#9_1" arrivalPos="60.02" arrivalSpeed="9.55" duration="244.00" routeLength="2320.75" waitSteps="5" timeLoss="58.53" rerouteNo="1" devices="tripinfo_bus4 routing_bus4" vType="bus" speedFactor="1.00" vaporized=""/>
    <tripinfo id="moto16" depart="129.00" departLane="-28234118#1_1" departPos="2.30" departSpeed="0.00" departDelay="-0.48" arrival="277.00" arrivalLane="330222366#3_1" arrivalPos="29.69" arrivalSpeed="11.99" duration="148.00" routeLength="1507.67" waitSteps="0" timeLoss="45.01" rerouteNo="1" devices="tripinfo_moto16 routing_moto16" vType="motorcycle" speedFactor="1.06" vaporized=""/>
    <tripinfo id="bike49" depart="181.00" departLane="330222367#5_1" departPos="1.70" departSpeed="0.00" departDelay="-0.36" arrival="280.00" arrivalLane="30036614_0" arrivalPos="71.81" arrivalSpeed="5.37" duration="99.00" routeLength="478.43" waitSteps="0" timeLoss="11.94" rerouteNo="1" devices="tripinfo_bike49 routing_bike49" vType="bicycle" speedFactor="0.97" vaporized=""/>
    <tripinfo id="veh31" depart="83.00" departLane="218164911_1" departPos="5.10" departSpeed="0.00" departDelay="-0.62" arrival="289.00" arrivalLane="24730644#21_1" arrivalPos="55.75" arrivalSpeed="13.27" duration="206.00" routeLength="2353.31" waitSteps="0" timeLoss="34.80" rerouteNo="1" devices="tripinfo_veh31 routing_veh31" vType="passenger" speedFactor="0.99" vaporized=""/>
    <personinfo id="ped13" depart="28.29">
        <walk depart="29.00" departPos="0.00" arrival="290.00" arrivalPos="0.00" duration="261.00" routeLength="327.73" timeLoss="25.03" maxSpeed="1.39"/>
    </personinfo>
    <tripinfo id="route3_1" depart="40.00" departLane="-318477797_1" departPos="7.60" departSpeed="0.00" departDelay="0.00" arrival="291.00" arrivalLane="30029209#1_1" arrivalPos="93.00" arrivalSpeed="13.73" duration="251.00" routeLength="2832.09" waitSteps="1" timeLoss="28.38" rerouteNo="0" devices="tripinfo_route3_1" vType="passenger" speedFactor="1.01" vaporized=""/>
    <tripinfo id="truck43" depart="173.00" departLane="35572872#0_1" departPos="7.20" departSpeed="0.00" departDelay="-0.99" arrival="296.00" arrivalLane="207145437_0" arrivalPos="139.63" arrivalSpeed="2.57" duration="123.00" routeLength="936.28" waitSteps="0" timeLoss="14.71" rerouteNo="1" devices="tripinfo_truck43 routing_truck43" vType="truck" speedFactor="1.00" vaporized=""/>
    <tripinfo id="bike27" depart="100.00" departLane="24730647#2_1" departPos="1.70" departSpeed="0.00" departDelay="0.07" arrival="299.00" arrivalLane="25649885#4_1" arrivalPos="67.59" arrivalSpeed="5.41" duration="199.00" routeLength="981.60" waitSteps="3" timeLoss="21.58" rerouteNo="1" devices="tripinfo_bike27 routing_bike27" vType="bicycle" speedFactor="1.10" vaporized=""/>
    <tripinfo id="bike70" depart="260.00" departLane="-330222366#4_1" departPos="1.70" departSpeed="0.00" departDelay="0.92" arrival="301.00" arrivalLane="24730642#2_1" arrivalPos="28.85" arrivalSpeed="5.38" duration="41.00" routeLength="196.30" waitSteps="0" timeLoss="4.45" rerouteNo="1" devices="tripinfo_bike70 routing_bike70" vType="bicycle" speedFactor="0.96" vaporized=""/>
    <tripinfo id="bike35" depart="129.00" departLane="-30024688_0" departPos="1.70" departSpeed="0.00" departDelay="-0.54" arrival="301.00" arrivalLane="330222366#0_1" arrivalPos="49.19" arrivalSpeed="5.30" duration="172.00" routeLength="854.83" waitSteps="1" timeLoss="17.47" rerouteNo="1" devices="tripinfo_bike35 routing_bike35" vType="bicycle" speedFactor="1.02" vaporized=""/>
    <tripinfo id="bike3" depart="11.00" departLane="30037054_0" departPos="1.70" departSpeed="0.00" departDelay="-0.10" arrival="306.00" arrivalLane="-24730644#13_1" arrivalPos="61.80" arrivalSpeed="5.49" duration="295.00" routeLength="1525.44" waitSteps="0" timeLoss="20.37" rerouteNo="1" devices="tripinfo_bike3 routing_bike3" vType="bicycle" speedFactor="1.17" vaporized=""/>
    <tripinfo id="bus23" depart="186.00" departLane="24730644#19_1" departPos="12.10" departSpeed="0.00" departDelay="-0.12" arrival="307.00" arrivalLane="-321823978#11_1" arrivalPos="30.90" arrivalSpeed="6.18" duration="121.00" routeLength="1103.63" waitSteps="0" timeLoss="29.58" rerouteNo="1" devices="tripinfo_bus23 routing_bus23" vType="bus" speedFactor="1.00" vaporized=""/>
    <tripinfo id="moto29" depart="234.00" departLane="-330222367#7_1" departPos="2.30" departSpeed="0.00" departDelay="-0.68" arrival="312.00" arrivalLane="330222367#11_1" arrivalPos="31.89" arrivalSpeed="9.75" duration="78.00" routeLength="517.50" waitSteps="0" timeLoss="39.82" rerouteNo="1" devices="tripinfo_moto29 routing_moto29" vType="motorcycle" speedFactor="0.98" vaporized=""/>
    <tripinfo id="veh88" depart="237.00" departLane="-321823978#2_1" departPos="5.10" departSpeed="0.00" departDelay="-0.38" arrival="315.00" arrivalLane="-30036609_1" arrivalPos="41.56" arrivalSpeed="11.27" duration="78.00" routeLength="603.72" waitSteps="0" timeLoss="8.15" rerouteNo="1" devices="tripinfo_veh88 routing_veh88" vType="passenger" speedFactor="0.87" vaporized=""/>
    <personinfo id="ped3" depart="6.53">
        <walk depart="7.00" departPos="0.00" arrival="319.00" arrivalPos="0.00" duration="312.00" routeLength="382.58" timeLoss="36.54" maxSpeed="1.39"/>
    </personinfo>
    <tripinfo id="moto24" depart="194.00" departLane="24730642#0_1" departPos="2.30" departSpeed="0.00" departDelay="-0.22" arrival="320.00" arrivalLane="321823978#14_1" arrivalPos="23.54" arrivalSpeed="7.87" duration="126.00" routeLength="1214.17" waitSteps="0" timeLoss="21.70" rerouteNo="1" devices="tripinfo_moto24 routing_moto24" vType="motorcycle" speedFactor="0.97" vaporized=""/>
    <tripinfo id="bike0" depart="0.00" departLane="24730644#5_1" departPos="1.70" departSpeed="0.00" departDelay="0.00" arrival="320.00" arrivalLane="-191207584#12_1" arrivalPos="235.03" arrivalSpeed="5.48" duration="320.00" routeLength="1657.78" waitSteps="0" timeLoss="21.36" rerouteNo="1" devices="tripinfo_bike0 routing_bike0" vType="bicycle" speedFactor="1.01" vaporized=""/>
    <tripinfo id="route2_1" depart="20.00" departLane="-318477797_1" departPos="7.60" departSpeed="0.00" departDelay="0.00" arrival="321.00" arrivalLane="30029209#1_1" arrivalPos="93.00" arrivalSpeed="12.10" duration="301.00" routeLength="2881.78" waitSteps="0" timeLoss="57.47" rerouteNo="0" devices="tripinfo_route2_1" vType="passenger" speedFactor="0.94" vaporized=""/>
    <tripinfo id="veh78" depart="210.00" departLane="-24730651#4_1" departPos="5.10" departSpeed="0.00" departDelay="-0.40" arrival="324.00" arrivalLane="321823978#12_1" arrivalPos="28.48" arrivalSpeed="10.36" duration="114.00" routeLength="1031.25" waitSteps="0" timeLoss="30.52" rerouteNo="1" devices="tripinfo_veh78 routing_veh78" vType="passenger" speedFactor="1.07" vaporized=""/>
    <tripinfo id="moto30" depart="242.00" departLane="191207584#10_1" departPos="2.30" departSpeed="0.00" departDelay="-0.77" arrival="325.00" arrivalLane="-24730651#7_1" arrivalPos="30.91" arrivalSpeed="13.93" duration="83.00" routeLength="1041.40" waitSteps="0" timeLoss="10.95" rerouteNo="1" devices="tripinfo_moto30 routing_moto30" vType="motorcycle" speedFactor="1.10" vaporized=""/>
    <tripinfo id="truck27" depart="113.00" departLane="-24730642#10_1" departPos="7.20" departSpeed="0.00" departDelay="3.75" arrival="325.00" arrivalLane="-321823978#20_1" arrivalPos="59.35" arrivalSpeed="9.14" duration="212.00" routeLength="1483.57" waitSteps="2" timeLoss="100.67" rerouteNo="1" devices="tripinfo_truck27 routing_truck27" vType="truck" speedFactor="1.00" vaporized=""/>
    <personinfo id="ped14" depart="30.47">
        <walk depart="31.00" departPos="0.00" arrival="328.00" arrivalPos="0.00" duration="297.00" routeLength="343.95" timeLoss="49.35" maxSpeed="1.39"/>
    </personinfo>
    <tripinfo id="veh53" depart="142.00" departLane="191207584#0_1" departPos="5.10" departSpeed="0.00" departDelay="-0.97" arrival="333.00" arrivalLane="-24730653#4_1" arrivalPos="42.66" arrivalSpeed="12.70" duration="191.00" routeLength="1467.49" waitSteps="14" timeLoss="77.30" rerouteNo="1" devices="tripinfo_veh53 routing_veh53" vType="passenger" speedFactor="0.98" vaporized=""/>
    <tripinfo id="veh102" depart="276.00" departLane="-330222367#8_1" departPos="5.10" departSpeed="0.00" departDelay="0.86" arrival="333.00" arrivalLane="-330222367#5_1" arrivalPos="145.87" arrivalSpeed="13.47" duration="57.00" routeLength="463.13" waitSteps="0" timeLoss="23.60" rerouteNo="1" devices="tripinfo_veh102 routing_veh102" vType="passenger" speedFactor="1.00" vaporized=""/>
    <personinfo id="ped122" depart="265.53">
        <walk depart="266.00" departPos="0.00" arrival="334.00" arrivalPos="0.00" duration="68.00" routeLength="81.34" timeLoss="9.44" maxSpeed="1.39"/>
    </personinfo>
    <tripinfo id="truck29" depart="117.00" departLane="218164911_1" departPos="7.20" departSpeed="0.00" departDelay="-0.34" arrival="336.00" arrivalLane="24730644#21_1" arrivalPos="55.75" arrivalSpeed="12.59" duration="219.00" routeLength="2351.21" waitSteps="0" timeLoss="51.69" rerouteNo="1" devices="tripinfo_truck29 routing_truck29" vType="truck" speedFactor="1.02" vaporized=""/>
    <tripinfo id="veh89" depart="240.00" departLane="30029312#4_1" departPos="5.10" departSpeed="0.00" departDelay="-0.07" arrival="336.00" arrivalLane="-30029209#1_1" arrivalPos="188.00" arrivalSpeed="14.76" duration="96.00" routeLength="1213.69" waitSteps="0" timeLoss="15.50" rerouteNo="1" devices="tripinfo_veh89 routing_veh89" vType="passenger" speedFactor="1.10" vaporized=""/>
    <tripinfo id="bike54" depart="200.00" departLane="-321823978#11_1" departPos="1.70" departSpeed="0.00" departDelay="0.14" arrival="338.00" arrivalLane="330222367#12_1" arrivalPos="150.90" arrivalSpeed="5.04" duration="138.00" routeLength="690.02" waitSteps="0" timeLoss="13.27" rerouteNo="1" devices="tripinfo_bike54 routing_bike54" vType="bicycle" speedFactor="0.98" vaporized=""/>
    <tripinfo id="moto32" depart="258.00" departLane="24730644#0_1" departPos="2.30" departSpeed="0.00" departDelay="-0.96" arrival="339.00" arrivalLane="-24730644#6_1" arrivalPos="56.13" arrivalSpeed="12.14" duration="81.00" routeLength="519.26" waitSteps="0" timeLoss="44.15" rerouteNo="1" devices="tripinfo_moto32 routing_moto32" vType="motorcycle" speedFactor="1.04" vaporized=""/>
    <tripinfo id="moto7" depart="56.00" departLane="-218164908#1_1" departPos="2.30" departSpeed="0.00" departDelay="-0.65" arrival="342.00" arrivalLane="-24730642#10_1" arrivalPos="196.16" arrivalSpeed="9.23" duration="286.00" routeLength="2804.09" waitSteps="0" timeLoss="43.29" rerouteNo="1" devices="tripinfo_moto7 routing_moto7" vType="motorcycle" speedFactor="0.83" vaporized=""/>
    <tripinfo id="veh80" depart="218.00" departLane="-24730644#8_1" departPos="5.10" departSpeed="0.00" departDelay="2.20" arrival="344.00" arrivalLane="-24730644#19_1" arrivalPos="31.01" arrivalSpeed="9.16" duration="126.00" routeLength="962.61" waitSteps="9" timeLoss="57.05" rerouteNo="1" devices="tripinfo_veh80 routing_veh80" vType="passenger" speedFactor="1.01" vaporized=""/>
    <tripinfo id="bus27" depart="218.00" departLane="-24730642#10_1" departPos="12.10" departSpeed="0.00" departDelay="-0.49" arrival="347.00" arrivalLane="-321823978#20_1" arrivalPos="59.35" arrivalSpeed="9.32" duration="129.00" routeLength="1478.67" waitSteps="0" timeLoss="18.95" rerouteNo="1" devices="tripinfo_bus27 routing_bus27" vType="bus" speedFactor="1.00" vaporized=""/>
    <tripinfo id="bike5" depart="18.00" departLane="-30024701_0" departPos="1.70" departSpeed="0.00" departDelay="-0.51" arrival="349.00" arrivalLane="206632640#0_1" arrivalPos="16.75" arrivalSpeed="5.30" duration="331.00" routeLength="1701.55" waitSteps="0" timeLoss="24.29" rerouteNo="1" devices="tripinfo_bike5 routing_bike5" vType="bicycle" speedFactor="1.02" vaporized=""/>
    <tripinfo id="veh82" depart="221.00" departLane="-35573057_1" departPos="5.10" departSpeed="0.00" departDelay="-0.19" arrival="351.00" arrivalLane="28234118#2_1" arrivalPos="59.81" arrivalSpeed="8.32" duration="130.00" routeLength="997.11" waitSteps="0" timeLoss="62.51" rerouteNo="1" devices="tripinfo_veh82 routing_veh82" vType="passenger" speedFactor="1.06" vaporized=""/>
    <personinfo id="ped4" depart="8.71">
        <walk depart="9.00" departPos="0.00" arrival="352.00" arrivalPos="0.00" duration="343.00" routeLength="417.43" timeLoss="42.45" maxSpeed="1.39"/>
    </personinfo>
    <tripinfo id="moto38" depart="307.00" departLane="-28233736#2_1" departPos="2.30" departSpeed="0.00" departDelay="-0.51" arrival="357.00" arrivalLane="319828651#0_1" arrivalPos="112.80" arrivalSpeed="12.56" duration="50.00" routeLength="605.97" waitSteps="0" timeLoss="9.70" rerouteNo="1" devices="tripinfo_moto38 routing_moto38" vType="motorcycle" speedFactor="1.09" vaporized=""/>
    <personinfo id="ped108" depart="235.06">